            #Ek_l1_s1              Vk_l1_s1
  -1.081558684145E+00    2.909966891416E-01
  -1.309724255302E-01   -1.697488530953E-01
  -1.815378548632E-02    8.126987899873E-02
   1.838474629692E-09    3.390315786474E-02
   1.815378762971E-02    8.126985492899E-02
   1.309723274470E-01   -1.697487952453E-01
   1.081558659122E+00    2.909966975902E-01
